<?xml version="1.0"?>
<VTKFile type="UnstructuredGrid"  version="0.1"  >
<UnstructuredGrid>
<Piece  NumberOfPoints="4090" NumberOfCells="11476">
<Points>
<DataArray  type="Float64"  NumberOfComponents="3"  format="ascii">4.21969696969697 2 0.3337439831306144  4.147900794628667 2 0.2218180472449446  4.21969696969697 1.75 0.3337439831306142  4.135495229518646 2 0.3147094196060649  6 1.888359594788328 0.1116404052116715  6 1.916666666666667 0  5.901059190630797 1.917725166095972 0  6 2 0.08333333333333333  2.5 1.2625 0.3903249211705991  2.5 1.3 0.5  2.5 1.225 0.5  2.653741923635044 1.2625 0.5  2.402658680426715 1.75 0.4056047035756439  2.402658680426715 2 0.4056047035756439  2.397477896512146 2 0.2916666666666666  2.397477896512145 1.75 0.2916666666666667  1.78030303030303 3 0.3687571051423324  1.700584053856183 3 0.2781819527550567  1.78030303030303 3 0.25  1.794506542624012 2.75 0.3207614115698894  2.5 1 0.3333333333333333  2.5 1 0.25  2.43598299841738 0.875 0.2083333333333333  2.386492830236886 1 0.2916666666666666  3.916666666666667 1 0.3975975259783028  3.878787878787879 1 0.5  3.840909090909091 0.9020573691460056 0.5  3.916666666666667 0.8479426308539944 0.5  4.901515151515151 2 0.09937816135650157  4.896385643707617 1.75 0.1372723602314622  4.977272727272727 1.75 0.1312428948576676  4.977272727272727 2 0.1662560168693858  2.424242424242423 1.75 0.5  2.348484848484848 1.75 0.5  2.402658680426715 1.824202591913781 0.5  4.068181818181818 3 0.09771332123801965  4.143939393939394 3 0.1239284968785861  4.068181818181818 2.75 0.1312428948576676  4.143939393939394 2.875 0  0.3409090909090916 0.75 0.1570693411386593  0.265151515151516 0.75 0.100090671524836  0.3409090909090914 0.8749999999999999 0  0.3030303030303036 0.75 0  3.406596082671353 2.2625 0  3.5 2.337499999999999 0.1020536741494214  3.331934902849863 2.2625 0  3.5 2.338694361030133 0.1895406017168888  1.174242424242424 2.902057369146005 0  1.174242424242424 3 0.1312428948576676  1.174242424242424 2.75 0.0993781613565019  1.25 2.875 0  6 0.75 0.08333333333333333  5.901059190630797 0.75 0.09717759529431624  6 0.75 0.1666666666666667  6 0.875 0.1183202026058358  2.402658680426715 2 0.0943952964243561  2.438772418058132 1.875 0  2.402658680426716 1.75 0.09439529642435476  2.369509834518797 1.863994686270795 0  1.363636363636364 0.75 0  1.401515151515151 0.75 0.1427213154269972  1.439393939393939 0.75 0  1.401515151515151 0.875 0  3.320623962640112 3.623520417064351 0.2159752292190778  3.350665964054384 3.706459027349658 0.1220745642006803  3.311987998637939 3.692299734203856 0  3.187500000000002 3.718387500000003 0  1.937982195582484 2.75 0.2361880843889068  1.896453375804258 3 0.2317250132539965  2.040575429010735 3 0.2682410569146602  2.007575757575757 3 0.1751445521130858  3.597341319573285 1.75 0.09439529642435607  3.5 2 0.1666666666666667  3.5 1.75 0.1666666666666667  3.599766653367503 2 0.2083333333333333  2.378877664085024 3.75 0.1220745642006802  2.3625 4 0.1763000000000002  2.5 3.75 0.1666666666666667  2.432367545377198 4 0.1366918179239933  0.5681818181818188 0.75 0.1494154578088048  0.5303030303030309 0.75 0  0.5681818181818188 0.8479426308539949 0  0.6060606060606066 0.75 0  4.674242424242425 3 0.3687571051423324  4.743798075456896 3 0.3093785525711656  4.75 2.75 0.3572786845730029  4.674242424242425 2.75 0.25  1.098484848484849 2.75 0.3228434228650139  1.170281023553153 2.75 0.2781819527550566  1.058092078741196 3 0.2682749867460035  1.174242424242424 3 0.25  2.720636469800816 2.881106664100947 0.5  2.936824164420321 2.900540086469694 0.5  2.90394885209359 2.760733880580336 0.5  2.933556540872832 2.796846829514555 0.3043978152821337  1.058092078741196 1 0.2682749867460035  1.022727272727273 1 0.1771565771349861  1.10749706514204 1 0.1839400509650593  1.098484848484849 0.75 0.25  0.4166666666666673 0.75 0.1067408680654931  0.3409090909090908 1 0.1494154578088048  0.4166666666666666 1 0.09937816135650196  0.2651515151515151 1.902057369146005 0.5  0.3409090909090909 2 0.3975975259783029  0.2272727272727273 2 0.5  0.303030303030303 2 0.5  0 1.75 0.5  0.07575757575757576 1.75 0.5  0 1.75 0.4166666666666667  0 1.833333333333333 0.5  0.6439393939393945 1.75 0.1427213154269972  0.6060606060606066 1.75 0  0.6439393939393945 1.847942630853995 0  0.6818181818181823 1.75 0  2.007575757575758 0.75 0.2345486799816341  2.088092094671704 0.75 0.2622480238411859  2.069129821012351 0.75 0.1792385884301101  2.083333333333333 1 0.1771565771349863  2.083333333333333 2 0.25  2.159090909090908 2 0.3572786845730028  2.083333333333333 1.75 0.2499999999999999  2.159090909090909 1.75 0.3572786845730027  1.63576579470398 3.862921339117167 0.356389002323746  1.548385859375 3.75 0.3258989141343558  1.548385859375 3.75 0.1747846353946986  1.684075559895833 3.75 0.25  2.159090909090909 0.8479426308539944 0  2.159090909090909 0.75 0.1427213154269971  2.234848484848484 0.75 0.102402474021697  2.234848484848484 0.8749999999999999 0  3.5 1 0.1666666666666667  3.302208524389434 1.068909496187302 0.301812914303148  3.314589995522139 0.9298223689896432 0.1778305666187374  3.5 1 0.25  1.477272727272727 0.75 0.25  1.410466120647487 0.7499999999999998 0.3159143346363734  1.477272727272727 0.7499999999999999 0.3687571051423324  1.477272727272727 1 0.25  3.916666666666667 1.75 0.09251548050220326  3.992424242424243 1.75 0.09937816135650157  3.954545454545455 1.75 0  3.992424242424243 1.875 0  1.174242424242424 1.75 0.3228434228650139  1.089472631827657 1.75 0.3160599490349405  1.098484848484849 1.75 0.4006218386434981  1.174242424242424 2 0.3572786845730028  3.916666666666667 2.75 0.3337439831306142  3.989559578391493 3 0.3046074471207276  3.916666666666667 3 0.25  3.840909090909091 3 0.3572786845730027  0.643939393939394 3 0.3337439831306143  0.643939393939394 2.75 0.3505845421911949  0.6391806326010234 2.75 0.2622480238411862  0.7281411341177183 3 0.3147094196060651  1.628787878787878 3 0.3228434228650139  1.704545454545454 2.75 0.3337439831306144  1.62034371436713 2.75 0.3147094196060651  1.78030303030303 1.875 0  1.78030303030303 2 0.1312428948576676  1.742424242424242 2 0  1.704545454545454 2 0.09937816135650192  0.643939393939394 0.75 0.3572786845730026  0.7281411341177184 1 0.3147094196060647  0.7196969696969698 1 0.4006218386434981  0.7196969696969698 0.75 0.3975975259783028  0.3375 4 0.35745  0.2625 4 0.3979463258505788  0.2625 4 0.25  0.210076484375 3.75 0.3516760395086801  5.901059190630797 1.847177595294316 0  0.09894080936920219 2 0.09717759529431602  0.09894080936920219 1.917725166095973 0  0.1515151515151515 2 0  0.1893939393939394 1.902057369146005 0  1.022727272727273 3 0.1771565771349862  1.098484848484849 3 0.09937816135650199  1.022727272727273 2.75 0.1097756386388368  1.022727272727273 2.902057369146005 0  3.083333333333333 0 0.2084285677578352  3.154238847278161 0.1630370427990716 0.3501740502494173  2.992248588662568 0.1594349660552918 0.1545588055623789  2.978864508803806 0.1538833833030022 0.3392930962197421  1.098484848484849 2.902057369146005 0.5  1.027856780534807 2.75 0.3627276397685376  1.098484848484849 2.75 0.4026118566720614  1.022727272727273 2.875 0.5  2.833765012012521 3.221496809041204 0.5  2.863196192070362 3.459397786887088 0.3686841970998774  2.948871876737008 3.360857147531266 0.5  2.96107783193781 3.175382621987711 0.2525015311303476  5.015151515151515 1.75 0  5.053030303030303 1.75 0.0993781613565021  5.090909090909091 1.75 0  5.053030303030303 1.902057369146006 0  5.659090909090908 3 0.1135862726254239  5.659090909090908 2.75 0.25  5.734848484848484 3 0.25  5.583333333333333 3 0.1771565771349861  5.901059190630798 1.75 0.0971775952943161  6 1.75 0.08333333333333333  6 1.833333333333333 0  3.112500000000002 4 0.25  3.033809417035283 4 0.2793386371138704  3.000043138778112 3.76184059007114 0.2359191277477725  3.112500000000002 4 0.3687  1.715767538269203 3 0.194289363137267  1.772616663862862 2.75 0.2344938728887181  0.3959527864583334 3.75 0.1505348415489043  0.4766335242559844 3.75 0.2400119072481928  0.4944672265625001 3.75 0.1208587041868791  0.4125 4 0.1763  2.50167872623801 0.8766940714770416 0.1115145408163265  2.537445816086286 0.8771375 0  2.703659848678603 0.8682556754058717 0  2.5 0.75 0.08333333333333333  0 3.876183198406914 0.1176656712047064  0.09968391739302654 4 0.2083333333333333  0.1581425404736908 3.75 0.2083333333333333  0.1110557333567853 3.75 0.1126977392232403  0.09894080936920219 3 0.0971775952943161  0.09894080936920313 2.75 0.09717759529431713  0.09894080936920314 2.847177595294317 0  0.1893939393939394 3 0.1494154578088047  1.5375 3.886201574707032 0  1.612499999999999 4 0.14255  1.618303571428572 3.75 0  1.6875 3.885737487599206 0  2.768490744477436 3.372413157894737 0.5  3.192632454622804 4 0.3633081820760067  3.262500000000002 4 0.4029163641520136  3.262500000000002 3.898904528147183 0.5  3.262500000000002 4 0.3236999999999999  3.5 1.75 0.4166666666666667  3.597341319573284 1.75 0.4056047035756453  3.561227581941868 1.825221541021051 0.5  3.575757575757576 1.75 0.5  3.333532260064677 0.9981300298164608 0  3.317202454240379 0.8729047359366935 0  3.239149478176873 0.9467604886312906 0  0.1110557333567852 3.75 0.3873022607767598  0 3.876183198406914 0.3823343287952936  0 3.75 0.4166666666666667  0 3.833333333333333 0.5  2.438772418058132 2.874515306122449 0  2.5 2.75 0.1666666666666667  2.5 2.75 0.08333333333333333  2.5 3 0.08333333333333333  1.3125 3.886885785590278 0.5  1.227678571428572 3.75 0.5  1.288159036458334 3.75 0.3310370169696706  1.354166666666667 3.75 0.5  2.396615376784372 2.75 0.2916666666666666  2.330610415843686 2.75 0.2113263155375695  2.31060606060606 2.75 0.3133608815426987  2.400884487527845 3 0.2916666666666666  2.668805325934325 2.925683018601329 0.342301217867812  2.733131907040771 2.734141216636037 0.2797979756111834  2.809522454093425 2.943676768334078 0.2452582399959518  5.297351315104167 3.75 0.1566005958355983  5.437500000000007 4 0.1313  5.403300807291666 3.75 0.25  5.403300807291666 3.8744
[...]
<PointData  Scalars="f_128"> 
<DataArray  type="Float64"  Name="f_128"  format="ascii">1.0688773500000000e-01  1.1503257000000000e-01  1.0862030000000000e-01  1.1595200000000000e-01  3.1558654999999998e-02  3.1214882000000003e-02  3.1650864000000001e-02  3.1332924999999998e-02  3.7767603999999999e-01  3.6429787000000002e-01  3.8598680000000002e-01  3.8180821999999998e-01  1.9028065000000000e-01  1.7783362999999999e-01  1.7802836000000000e-01  1.9047520000000001e-01  3.6873464000000002e-02  3.4089809999999998e-02  3.6993039999999998e-02  3.7544996000000004e-02  4.4517899999999999e-01  4.4347718000000003e-01  4.4831072999999999e-01  4.2249140000000007e-01  3.3209433999999999e-01  3.4118235000000002e-01  3.5501655999999998e-01  3.3270879999999997e-01  5.6444532999999998e-02  5.6860800000000003e-02  5.3071420000000001e-02  5.3146143000000000e-02  1.9266158000000000e-01  1.7512584000000000e-01  1.8472818999999999e-01  4.2903993000000001e-02  3.9782915000000002e-02  4.3141529999999997e-02  3.9570939999999999e-02  7.8424649999999999e-02  7.5613199999999992e-02  7.7770039999999999e-02  7.6027624000000002e-02  1.5310257999999999e-01  1.4186016000000001e-01  1.5428469000000000e-01  1.4227413999999999e-01  2.0077858000000001e-02  2.0219905000000000e-02  2.0174426999999998e-02  2.1574177000000003e-02  7.4289279999999999e-02  7.5761770000000006e-02  7.4601925999999999e-02  7.4494640000000001e-02  1.7654426000000001e-01  1.8939771000000000e-01  1.8990254000000001e-01  1.7794736999999999e-01  1.7174268000000001e-01  1.7997041000000000e-01  1.8414706000000000e-01  1.7883149000000001e-01  4.9629457000000002e-02  4.6590100000000002e-02  4.7129354999999998e-02  4.7723920000000003e-02  4.3555445999999998e-02  4.1613400000000002e-02  4.8179804999999999e-02  4.6584910000000000e-02  1.9501366000000001e-01  1.9069283000000001e-01  2.2129752999999999e-01  1.7880562000000000e-01  3.5679556000000001e-02  3.3646160000000001e-02  4.1575793000000000e-02  3.5925010000000000e-02  8.9147760000000006e-02  8.5855015000000007e-02  8.8559024000000000e-02  9.0380445000000004e-02  2.3243102999999998e-02  2.1785143999999999e-02  2.1594497999999997e-02  2.3275878000000000e-02  1.8888846000000001e-02  2.0186777999999999e-02  1.8227759999999999e-02  2.0265188000000000e-02  8.4578070000000005e-02  8.5858030000000002e-02  9.6959404999999999e-02  9.5302970000000001e-02  1.3191560999999999e-01  1.2778217000000000e-01  1.3773843999999999e-01  1.3659382000000000e-01  8.1231460000000005e-02  7.8359499999999999e-02  8.1179740000000000e-02  2.8195186000000001e-02  2.9255512999999997e-02  2.7612537000000003e-02  2.8494815999999999e-02  2.6171027000000003e-02  2.6477457999999999e-02  2.6381120000000001e-02  2.6312980000000000e-02  3.5007839999999998e-02  3.3696047999999999e-02  3.4775420000000001e-02  3.5488489999999998e-02  3.1548733000000001e-01  3.3889990000000003e-01  3.3251238000000000e-01  3.3471297999999999e-01  1.3362290000000002e-01  1.4381698000000001e-01  1.3570699000000000e-01  1.4590248000000000e-01  1.6291168000000002e-02  1.4959318999999999e-02  1.4993204000000000e-02  1.7039916000000002e-02  3.5562220000000000e-01  3.6029847999999998e-01  3.8425878000000002e-01  3.7849094999999999e-01  4.4641972000000002e-01  4.4353396000000000e-01  4.8331522999999998e-01  4.4643347999999999e-01  1.9371709000000001e-01  1.8202721999999999e-01  1.9327584000000000e-01  1.9343510000000000e-01  1.4215401999999999e-01  1.3283450999999999e-01  1.3556936000000000e-01  1.3094375000000000e-01  5.4593745999999999e-02  5.0464302000000003e-02  5.0625544000000001e-02  5.4449190000000001e-02  5.0651889999999998e-02  4.6679175999999996e-02  5.0254554000000007e-02  5.4239099999999998e-02  1.3051183000000001e-02  1.3046022500000001e-02  1.3021148000000000e-02  1.4010766000000001e-02  3.1674649999999999e-02  3.4199559999999997e-02  3.1366374000000002e-02  9.8280569999999998e-02  9.8896034000000008e-02  9.4005640000000001e-02  9.1389730000000002e-02  9.4020859999999998e-02  1.0008338999999999e-01  9.9010705999999990e-02  9.9144549999999998e-02  5.4953456999999994e-03  5.3024143000000006e-03  5.3307815000000003e-03  5.2101136999999995e-03  3.1690396000000003e-02  2.6942212000000004e-02  2.6766640000000001e-02  2.7006328000000000e-02  2.7440831000000002e-02  1.7679482999999999e-02  1.8804043999999999e-02  1.7611880000000000e-02  1.7534316000000001e-02  8.2151770000000002e-01  7.5416654000000005e-01  7.5437730000000003e-01  7.5608390000000003e-01  1.8717520000000001e-02  1.7723821000000001e-02  1.8807279999999999e-02  1.7512701000000002e-02  6.5899940000000004e-02  5.6328049999999998e-02  6.0068384000000002e-02  6.9647305000000007e-02  5.0785629999999998e-02  4.9747087000000002e-02  4.7776434999999999e-02  4.9500919999999997e-02  1.0776805000000000e-02  1.0843545000000000e-02  1.0368029000000001e-02  1.1352492500000000e-02  3.1960852000000005e-02  3.1409689999999997e-02  3.1209797000000001e-02  4.4327730000000003e-02  4.4873349999999999e-02  4.8070960000000003e-02  4.4297910000000003e-02  3.4595195000000002e-02  3.6735113999999999e-02  5.6515894999999991e-03  5.8882049999999997e-03  5.9174780000000003e-03  5.7068739999999998e-03  4.6629024000000002e-01  4.7103158000000001e-01  5.0075566999999999e-01  5.0238690000000008e-01  4.9294713000000000e-03  5.0511667999999996e-03  5.1174545999999998e-03  5.0396333000000005e-03  9.6151069999999995e-03  9.6298080000000001e-03  9.5630609999999994e-03  9.8623205000000005e-03  1.4673976000000002e-02  1.5970379999999999e-02  1.5921506999999998e-02  1.6942525000000000e-02  5.8885609999999998e-02  4.3641720000000002e-02  4.2618747999999998e-02  4.3627757999999996e-02  4.2918570000000003e-02  2.2146740000000001e-01  1.9305833000000000e-01  1.9759746000000000e-01  1.9558202999999999e-01  4.5764354000000002e-01  4.9522758000000000e-01  4.8022907999999997e-01  5.0383729999999996e-03  4.9328459999999994e-03  4.9103359999999995e-03  4.8864959999999997e-03  7.2334304000000002e-02  8.5511594999999996e-02  8.4788050000000004e-02  7.2295256000000002e-02  1.1214411000000001e-02  1.0239795999999999e-02  1.1010466000000002e-02  1.1700486999999999e-02  7.2643130000000000e-02  6.7291095999999995e-02  6.6106020000000001e-02  6.8229966000000003e-02  8.1323005000000004e-02  9.8592680000000002e-02  8.2567550000000003e-02  6.5765939999999998e-03  6.0049294999999997e-03  6.1574206000000005e-03  6.1047200000000001e-03  2.0595363000000000e-01  1.9194386999999999e-01  1.9764708000000000e-01  2.0713939000000001e-01  1.9316775000000000e-01  2.0543665999999999e-01  2.0583797000000001e-01  1.4988360000000001e-01  1.6837530000000001e-01  1.8185483000000000e-01  1.6748884000000000e-01  3.1186149999999996e-01  3.2069623000000003e-01  3.3485425000000002e-01  3.3613259999999995e-01  4.0532127000000001e-02  4.1207503999999999e-02  4.2534414999999999e-02  4.0303390000000001e-02  6.0591579999999999e-02  5.8616902999999998e-02  5.3292207000000001e-02  5.8989606999999999e-02  3.2104729999999998e-02  3.1927930000000000e-02  3.2373670000000000e-02  3.2528580000000001e-02  9.6034150000000006e-03  9.4424619999999987e-03  9.4486399999999995e-03  9.6671650000000001e-03  4.1637997999999996e-02  4.4369134999999997e-02  4.3086324000000002e-02  4.1702929999999999e-02  5.3869723000000000e-03  5.2922195999999993e-03  5.3856223999999998e-03  5.5188397000000000e-03  6.0046179999999998e-02  5.4757445999999994e-02  6.5381444999999996e-02  5.8480452999999995e-02  1.8044193000000000e-01  1.9139708999999999e-01  1.6867035999999999e-01  1.4516678000000000e-01  1.3610612999999999e-01  1.3666959000000001e-01  1.3671266000000001e-01  4.5045240000000003e-01  4.4914391999999997e-01  4.9951170000000000e-01  4.3867314000000002e-01  1.9652173000000001e-01  1.7896402000000000e-01  2.0600094999999999e-01  1.9094522000000000e-01  9.6165539999999994e-03  9.6918880000000009e-03  9.9707300000000006e-03  9.3811209999999992e-03  9.5885499999999995e-03  1.1053720500000001e-02  1.0344921999999999e-02  1.0138374000000000e-02  7.3552154000000008e-02  7.3839790000000002e-02  7.4484919999999996e-02  7.4201470000000005e-02  2.0463866000000000e-01  1.9251852999999999e-01  2.0518388000000001e-01  2.0581287000000001e-01  1.7834797999999999e-02  1.5917397999999999e-02  1.4977545500000000e-02  1.5867505000000000e-02  9.6674220000000005e-02  9.3913860000000002e-02  9.7107540000000006e-02  9.8484360000000007e-02  2.6539363999999999e-01  3.0443946000000000e-01  3.1649201999999999e-01  2.6743459999999997e-01  1.1210991400000000e-01  1.1594769000000001e-01  1.0613134500000000e-01  1.1332258000000001e-01  2.9276799999999997e-01  3.1156655999999999e-01  2.9153147000000001e-01  2.9970634000000002e-01  2.6711940000000006e-01  3.1835657000000001e-01  2.6528752000000000e-01  3.0074909999999999e-01  2.1897219000000001e-01  2.6250050000000003e-01  2.1917148000000000e-01  2.1955878000000001e-01  2.1551072999999997e-02  2.1783637000000002e-02  2.0138633000000000e-02  2.1590829999999998e-02  6.3488649999999994e-02  5.8462247000000002e-02  6.1358179999999998e-02  6.5583480000000000e-02  1.2191664000000000e-02  1.2233542000000000e-02  1.2169671000000002e-02  1.1373102000000000e-02  1.6819097000000000e-01  1.8099340999999999e-01  1.7213307000000000e-01  1.7936851000000001e-01  9.9142679999999997e-02  9.9662080000000000e-02  9.1378529999999999e-02  9.2783820000000003e-02  3.2105615999999998e-01  3.4359777000000002e-01  3.1283810000000001e-01  5.6320320000000000e-02  5.3125671999999999e-02  6.0515105999999999e-02  5.6440390000000000e-02  7.4233640000000004e-02  7.9142690000000002e-02  7.9030945999999991e-02  7.3218090000000000e-02  2.0163917999999999e-02  2.0386256000000002e-02  1.9601442000000000e-02  2.2805394999999999e-02  6.0549035999999994e-02  6.5293699999999996e-02  6.4566020000000002e-02  6.7176769999999997e-01  7.3056805000000002e-01  7.0435314999999998e-01  6.9835190000000003e-01  3.6590240000000003e-02  3.4027696000000003e-02  3.3841018000000000e-02  3.6778937999999997e-02  2.2110850000000001e-02  2.1454051000000002e-02  2.3066176000000001e-02  6.7441477000000005e-03  6.4246340000000002e-03  6.7429169999999993e-03  6.9376817000000000e-03  7.0220135000000003e-02  6.9867189999999996e-02  7.0416820000000005e-02  7.0702699999999993e-02  2.1181093999999998e-02  2.0227820000000001e-02  2.0196390000000002e-02  1.9651892000000001e-02  4.1199922999999999e-01  4.2499554000000000e-01  4.4658637000000001e-01  4.3773758000000002e-01  2.8941120000000004e-01  2.6597804000000003e-01  2.6346657000000001e-01  9.8665780000000008e-03  9.8613690000000000e-03  9.6676544999999992e-03  4.3008906000000002e-01  4.2315185000000000e-01  4.0378990000000003e-01  7.3028419999999997e-02  6.3680929999999997e-02  6.7190020000000003e-02  3.2780166999999999e-02  3.2649796000000002e-02  3.2325260000000001e-02  3.2273813999999998e-02  1.3559726000000000e-01  1.3642078999999999e-01  1.2737112000000000e-01  1.2670961000000000e-01  4.3137481999999999e-01  4.0751725000000000e-01  4.2818645000000000e-01  4.2396042000000000e-01  3.1421184999999997e-02  2.2181375000000000e-01  2.1219194999999999e-01  3.2889599999999998e-02  1.9979703999999997e-02  1.9196602000000000e-02  1.8770851000000002e-02  1.8694466000000000e-02  5.5138680000000007e-01  4.9605808000000001e-01  4.9529742999999998e-01  3.6303446000000003e-02  4.1463659999999999e-02  3.1849204999999998e-02  3.1845833999999996e-02  1.8692181999999998e-02  1.8771756000000001e-02  1.7982888999999998e-02  1.9197592999999999e-02  1.0451600000000001e-01  9.8572370000000006e-02  1.0086748000000000e-01  2.5432199999999999e-02  2.6752370000000001e-02  2.6598707000000003e-02  2.4685687999999997e-02  2.8535336000000001e-02  2.7683076000000001e-02  2.7657813999999999e-02  2.7645287999999997e-02  2.0137440000000000e-02  1.9978757999999999e-02  2.1548592000000002e-02  6.0039854000000004e-01  6.5157735000000006e-01  5.7209133999999995e-01  6.5813284999999999e-01  6.4419019999999994e-02  6.4141995999999993e-02  5.9975907000000002e-02  6.4368605999999995e-02  8.4401539999999997e-02  8.2107369999999999e-02  8.4999956000000002e-02  8.5947570000000001e-02  1.9173834000000001e-01  1.9164194000000001e-01  2.2270203999999999e-01  2.2144978000000001e-01  3.3737414999999998e-01  3.2482602999999999e-01  3.1224712999999998e-01  3.1784330000000000e-01  1.1312201599999999e-01  9.9372849999999999e-02  1.7745021999999999e-01  1.9542201000000001e-01  1.8664098000000001e-01  1.9380850999999999e-01  1.0261837000000000e-01  1.1140777000000000e-01  1.1452066000000000e-01  1.1197380000000001e-01  2.8367784000000000e-02  2.8489753999999999e-02  5.2540417999999998e-02  5.3421915000000000e-02  4.9024169999999999e-02  5.1665580000000003e-02  1.1216929000000000e-01  1.0175760000000000e-01  1.2238451000000000e-01  1.2919185000000000e-01  7.4414833999999999e-02  7.5515659999999998e-02  7.5680020000000001e-02  4.0368654999999998e-01  4.2201274999999999e-01  3.9349752999999998e-01  4.1407663000000000e-01  4.0319819999999999e-02  4.3044609999999997e-02  3.9918552999999996e-02  4.3293837000000002e-02  9.1777910000000004e-02  9.1175205999999995e-02  8.4408954000000008e-02  9.5143920000000000e-03  9.3330700000000006e-03  9.2942100000000007e-03  1.7470757999999999e-02  1.6921287000000000e-02  1.9533979999999999e-02  1.3973819000000001e-01  8.7136716000000003e-02  4.9632913000000001e-01  4.4163271999999998e-01  4.9665973000000002e-01  8.1338450000000007e-03  8.1085510000000003e-03  7.6399855000000008e-03  8.0404109999999990e-03  1.3196099999999999e-01  1.4263087999999999e-01  1.4649793999999999e-01  1.6455571999999998e-02  1.7586008000000000e-02  1.6876135000000000e-02  3.8357157000000003e-02  3.8140779999999999e-02  3.6120029999999997e-02  3.6582950000000003e-02  6.2566884000000003e-02  5.9926967999999997e-02  6.7605139999999994e-02  5.8352858000000001e-02  6.8289097000000000e-03  6.7580810000000000e-03  6.7612680000000008e-03  7.3393145999999998e-03  1.6267094999999999e-02  1.6988790000000000e-02  4.4092618000000000e-02  4.1379492999999996e-02  4.4257060000000001e-02  4.2465410000000002e-02  2.1680080000000001e-02  2.2267932000000001e-02  2.0701266999999999e-02  9.3691479999999994e-02  9.3312759999999995e-02  9.8599080000000006e-02  9.5339380000000001e-02  3.1220199999999998e-01  2.6756842000000003e-02  2.5524102000000003e-02  2.6639326000000001e-02  2.7588451000000000e-02  2.6919297999999998e-02  2.7123117999999998e-02  2.7797204999999998e-02  2.5790805000000000e-02  1.1028681000000000e-02  1.1258886999999999e-02  1.0142503000000001e-02  1.0383747500000000e-02  2.5808492000000000e-01  2.7577907000000002e-01  3.0679956000000003e-01  5.0148778000000003e-03  4.8828055000000002e-03  4.9657206999999997e-03  4.9387690000000000e-03  3.3398341999999998e-01  3.2058248000000000e-01  3.4327257000000000e-01  3.3238032000000001e-01  1.8693754000000001e-01  1.8164142999999999e-01  1.8862058000000001e-01  1.9711450999999999e-01  1.8260145000000000e-01  2.0328629000000001e-01  1.9705876999999999e-01  2.1469416999999999e-01  6.0556702000000004e-02  6.4573645999999998e-02  1.6746966999999999e-01  1.6740814000000001e-01  1.5556123999999999e-01  1.6671227000000000e-01  1.5986312999999999e-01  1.5533447000000000e-01  1.5606666000000000e-01  1.6687516999999999e-01  4.4852062999999998e-01  7.3519505999999998e-02  7.5682459999999993e-02  7.4196310000000001e-02  7.4479489999999995e-02  1.2566078999999999e-02  1.2567908000000001e-02  1.2598426999999999e-02  1.1967732000000000e-02  7.4484199999999999e-03  7.4781290000000000e-03  7.1457790000000005e-03  7.0717549999999999e-03  1.9036243999999999e-01  1.8641727000000000e-01  2.0514890000000000e-01  2.1897894000000001e-01  4.5602604999999997e-02  4.4446385999999997e-02  4.4772210000000000e-02  2.9816042999999998e-01  2.9208531999999998e-01  1.9211564000000000e-02  1.8786522999999999e-02  9.9616214999999994e-02  3.8377229999999998e-02  3.8931080000000000e-02  3.7048586000000001e-02  1.0521380599999999e-01  7.9879790000000006e-02  7.9310100000000008e-02  7.7171124999999993e-02  7.7627619999999994e-02  4.5994967000000005e-02  4.8802696000000000e-02  4.1732640000000001e-02  1.4673398000000001e-01  1.4311439000000001e-01  1.6580379000000001e-01  1.4139852999999999e-01  4.8687460000000002e-03  4.9112253000000005e-03  4.8628569999999999e-03  2.1535562000000000e-01  1.8868354000000001e-01  1.2775093999999999e-02  1.1346978999999998e-02  1.3873858999999999e-02  1.4144683999999999e-02  1.3256058000000001e-02  1.4090843500000000e-02  1.4066998000000001e-02  7.2252910000000004e-02  6.8862100000000009e-02  7.2682949999999996e-02  6.8927939999999993e-02  2.3546240000000000e-02  2.3407111000000001e-02  2.5407702000000001e-02  2.5249767999999999e-02  2.9375186000000001e-02  2.9128708000000000e-02  3.0247050000000001e-02  2.9313967999999999e-02  1.1640671000000002e-02  1.2106341999999999e-02  8.6051699999999995e-02  8.0123915999999989e-02  8.6076070000000005e-02  8.5737519999999998e-02  1.1862742000000000e-01  1.1919223000000000e-01  1.1423840400000000e-01  1.2188233400000001e-01  1.6527873999999998e-02  1.6617916999999999e-02  1.6591676999999999e-02  1.5620426999999999e-02  9.1771975000000006e-02  8.5599913999999999e-02  9.2948279999999994e-02  9.8958774999999999e-02  4.7902204000000004e-02  5.3170255999999999e-02  9.2278324000000009e-02  8.9701033999999999e-02  9.6974625999999994e-02  8.8803729999999997e-02  6.6999185000000006e-01  6.2041709999999994e-01  9.6269590000000009e-03  9.8599999999999990e-03  9.9503270000000001e-03  9.9519859999999995e-03  5.8678069999999999e-02  5.2577864000000002e-02  1.0776473000000000e-02  1.0469126000000000e-02  1.0856306000000001e-02  1.0959251000000001e-02  7.7880666000000001e-02  7.8023284999999998e-02  7.7841800000000003e-02  8.0141669999999998e-02  1.6746917000000000e-01  1.5570418999999999e-01  1.6739254000000001e-01  2.7234343000000000e-01  2.9244164000000000e-01  2.9116413000000002e-01  2.7543315000000002e-01  2.6494770000000001e-02  2.6962622999999998e-02  6.3393994999999995e-02  5.7919709999999999e-02  6.5530759999999993e-02  5.8695707000000000e-02  1.5565467999999999e-01  1.6024020000000000e-01  1.6692097000000000e-01  1.5622643999999999e-01  1.7864080000000001e-02  1.7612161000000001e-02  1.7657347000000000e-02  1.6631633000000000e-02  1.8026581000000000e-02  1.8723302000000001e-02  1.9279014000000001e-02  3.7978400000000002e-02  3.9717108000000001e-02  3.8586154999999997e-02  3.8219697999999996e-02  1.6589135999999999e-01  1.6341629999999999e-01  1.6214232000000001e-01  1.5565631999999999e-01  5.4129872000000002e-02  5.8474127000000001e-02  9.5881059999999990e-03  8.1393590000000002e-02  8.0826529999999994e-02  8.2012320000000000e-02  4.4481599999999999e-01  4.5335764000000001e-01  5.7771370000000002e-02  6.2738349999999998e-02  6.5112895999999990e-02  1.5473595000000001e-01  1.4318881999999999e-01  7.7558994000000006e-02  9.6721050000000003e-03  9.5842890000000010e-03  9.8077500000000005e-03  3.1560182999999999e-02  3.0465639999999999e-02  3.0257172999999998e-02  3.0689687000000000e-02  3.5064716000000003e-02  3.5289229999999998e-02  3.6939822000000004e-02  3.7283650000000002e-02  6.4962099999999995e-02  6.9066114999999997e-02  6.8136070000000007e-02  6.3014169999999994e-02  3.8906144999999998e-01  4.1803536000000002e-01  3.3073327000000002e-01  3.7145630000000002e-01  9.2765324000000010e-02  9.2362550000000002e-02  9.6722885999999994e-02  9.3897566000000002e-02  2.5490489999999999e-01  2.7226609999999996e-01  2.5419068000000000e-01  2.7365959999999995e-01  1.1127548000000000e-01  1.1175623000000000e-01  1.1157628999999999e-01  2.1604756999999999e-01  2.2290710000000000e-01  2.7088643999999999e-02  2.7108495999999999e-02  1.0516064000000000e-01  1.0704892000000001e-01  1.0584063000000000e-01  5.0671429999999996e-03  5.1646570000000004e-03  9.4726069999999992e-03  9.4610849999999993e-03  1.1433919500000000e-01  1.2095170000000001e-01  1.1385155000000000e-01  1.2122975000000000e-01  3.9687099999999996e-02  3.9866574000000002e-02  3.8549689999999998e-02  4.0445733999999997e-02  5.1954673000000002e-03  4.9663939999999998e-03  5.041970399999999